                               Psi4 1.6.1 release

  ==> Input File <==

--------------------------------------------------------------------------
#! Vibrational and thermo analysis of r32.
memory 2000 mb

molecule ch2f2 {

  C   -0.88400    2.63800   -0.06500
  H   -1.22900    3.61000   -0.42200
  H   -1.22900    1.79900   -0.67400
  F    0.48200    2.63600   -0.05400
  F   -1.32900    2.46000    1.21400

}

set basis 6-31G**

energy('mp2')

optimize('mp2', molecule=ch2f2)

set t 273.15

e, wfn = freq('mp2', molecule=ch2f2, return_wfn=True)
entropy = 1000 * psi_hartree2kcalmol * (variable('enthalpy correction') - variable('gibbs free energy correction')) / get_global_option('t')

set hessian_write on
vibanal_wfn(wfn)
entropy = 1000 * psi_hartree2kcalmol * (variable('enthalpy correction') - variable('gibbs free energy correction')) / get_global_option('t')

--------------------------------------------------------------------------

    Molecular point group: c1
  Charge       = 0
  Multiplicity = 1
  Basis Set: 6-31G**
    Blend: 6-31G**
  Basis Set: (6-31G** AUX)
    Blend: CC-PVDZ-JKFIT
  @DF-RHF Final Energy:  -237.89801614485535
    Total Energy =                       -237.8980161448553474
 Dipole X            :          1.0143122           -1.5118812           -0.4975689
 Dipole Y            :         -0.1961884            0.2937437            0.0975554
 Dipole Z            :          1.4206805           -2.1171971           -0.6965166
 Magnitude           :                                                    0.8615261
  Basis Set: (6-31G** AUX)
    Blend: CC-PVDZ-RI
	 Reference Energy          =    -237.8980161448553474 [Eh]
	 Singles Energy            =      -0.0000000000000000 [Eh]
	 Same-Spin Energy          =      -0.1302679980583378 [Eh]
	 Opposite-Spin Energy      =      -0.3616026843684063 [Eh]
	 Correlation Energy        =      -0.4918706824267440 [Eh]
	 Total Energy              =    -238.3898868272820835 [Eh]
	 SCS Total Energy          =    -238.3753620321168682 [Eh]
    Molecular point group: c1
  Basis Set: 6-31G**
    Blend: 6-31G**
  Basis Set: (6-31G** AUX)
    Blend: CC-PVDZ-JKFIT
  @DF-RHF Final Energy:  -237.89801614487851
    Total Energy =                       -237.8980161448785111
  Basis Set: (6-31G** AUX)
  @DF-RHF Final Energy:  -237.89831161915828
    Total Energy =                       -237.8983116191582781
  @DF-RHF Final Energy:  -237.89839458571399
    Total Energy =                       -237.8983945857139872
  **** Optimization is complete! (in 3 steps) ****
    Final optimized geometry and variables:
                               Psi4 1.6.1 release
  @DF-RHF Final Energy:  -237.89839458568534
    Total Energy =                       -237.8983945856853381
                               Psi4 1.6.1 release
  @DF-RHF Final Energy:  -237.89837933131446
    Total Energy =                       -237.8983793313144588
                               Psi4 1.6.1 release
  @DF-RHF Final Energy:  -237.89840830012170
    Total Energy =                       -237.8984083001217016
                               Psi4 1.6.1 release
  @DF-RHF Final Energy:  -237.89839640346176
    Total Energy =                       -237.8983964034617600
                               Psi4 1.6.1 release
  @DF-RHF Final Energy:  -237.89839070543565
    Total Energy =                       -237.8983907054356450
                               Psi4 1.6.1 release
  @DF-RHF Final Energy:  -237.89837347285950
    Total Energy =                       -237.8983734728595039
                               Psi4 1.6.1 release
  @DF-RHF Final Energy:  -237.89841401676699
    Total Energy =                       -237.8984140167669921
                               Psi4 1.6.1 release
  @DF-RHF Final Energy:  -237.89837915101526
    Total Energy =                       -237.8983791510152628
                               Psi4 1.6.1 release
  @DF-RHF Final Energy:  -237.89840741679524
    Total Energy =                       -237.8984074167952372
                               Psi4 1.6.1 release
  @DF-RHF Final Energy:  -237.89841703463480
    Total Energy =                       -237.8984170346348037
                               Psi4 1.6.1 release
  @DF-RHF Final Energy:  -237.89836466506858
    Total Energy =                       -237.8983646650685841
                               Psi4 1.6.1 release
  @DF-RHF Final Energy:  -237.89837682543248
    Total Energy =                       -237.8983768254324787
                               Psi4 1.6.1 release
  @DF-RHF Final Energy:  -237.89840977188265
    Total Energy =                       -237.8984097718826547
                               Psi4 1.6.1 release
  @DF-RHF Final Energy:  -237.89837888441366
    Total Energy =                       -237.8983788844136598
                               Psi4 1.6.1 release
  @DF-RHF Final Energy:  -237.89840767182719
    Total Energy =                       -237.8984076718271865
                               Psi4 1.6.1 release
  @DF-RHF Final Energy:  -237.89837163084297
    Total Energy =                       -237.8983716308429734
                               Psi4 1.6.1 release
  @DF-RHF Final Energy:  -237.89841158580941
    Total Energy =                       -237.8984115858094128
                               Psi4 1.6.1 release
  @DF-RHF Final Energy:  -237.89836930429877
    Total Energy =                       -237.8983693042987682
                               Psi4 1.6.1 release
  @DF-RHF Final Energy:  -237.89841579423160
    Total Energy =                       -237.8984157942315960
                               Psi4 1.6.1 release
  @DF-RHF Final Energy:  -237.89842132742328
    Total Energy =                       -237.8984213274232786
                               Psi4 1.6.1 release
  @DF-RHF Final Energy:  -237.89836745558245
    Total Energy =                       -237.8983674555824450
                               Psi4 1.6.1 release
  @DF-RHF Final Energy:  -237.89839716577850
    Total Energy =                       -237.8983971657785048
                               Psi4 1.6.1 release
  @DF-RHF Final Energy:  -237.89839192826642
    Total Energy =                       -237.8983919282664203
                               Psi4 1.6.1 release
  @DF-RHF Final Energy:  -237.89837559643632
    Total Energy =                       -237.8983755964363240
                               Psi4 1.6.1 release
    Molecular point group: c1
  Charge       = 0
  Multiplicity = 1
  Basis Set: 6-31G**
    Blend: 6-31G**
  Basis Set: (6-31G** AUX)
    Blend: CC-PVDZ-JKFIT

    Orbital Energies [Eh]
    ---------------------

    Doubly Occupied:

       1A    -26.307150     2A    -26.307061     3A    -11.406308
       4A     -1.647085     5A     -1.588538     6A     -0.964430
       7A     -0.767555     8A     -0.757748     9A     -0.741318
      10A     -0.654111    11A     -0.619281    12A     -0.611176
      13A     -0.529893

  @DF-RHF Final Energy:  -237.89841327636907

   => Energetics <=

    Nuclear Repulsion Energy =             76.9199325744643687
    One-Electron Energy =                -483.8333824602900677
    Two-Electron Energy =                 169.0150366094566152
    Total Energy =                       -237.8984132763690695
 Dipole X            :          1.0190709           -1.5116538           -0.4925829
 Dipole Y            :         -0.1984835            0.2943360            0.0958524
 Dipole Z            :          1.4282898           -2.1174339           -0.6891441
 Magnitude           :                                                    0.8524935
  Basis Set: (6-31G** AUX)
    Blend: CC-PVDZ-RI
    Molecular point group: c1

    Geometry (in Bohr), charge = 0, multiplicity = 1:

       Center              X                  Y                   Z               Mass
    ------------   -----------------  -----------------  -----------------  -----------------
         C           -0.605943214139     0.118049874283    -0.848799947504    12.000000000000
         H           -1.263615799298     1.938864683875    -1.534793219253     1.007825032230
         H           -1.263500565301    -1.446846505453    -2.005020846146     1.007825032230
         F            1.970180030861     0.116233485746    -0.836018536195    18.998403162730
         F           -1.453388718603    -0.216898089584     1.559927407735    18.998403162730

  Basis Set: 6-31G**
    Blend: 6-31G**
  Basis Set: (6-31G** AUX)
    Blend: CC-PVDZ-JKFIT
  Basis Set: (6-31G** AUX)
    Blend: CC-PVDZ-JKFIT
	 Reference Energy          =    -237.8984132763690695 [Eh]
	 Singles Energy            =      -0.0000000000000000 [Eh]
	 Same-Spin Energy          =      -0.1302179330657750 [Eh]
	 Opposite-Spin Energy      =      -0.3613404596981168 [Eh]
	 Correlation Energy        =      -0.4915583927638918 [Eh]
	 Total Energy              =    -238.3899716691329616 [Eh]

	 ================> DF-SCS-MP2 Energies <==================
	-----------------------------------------------------------
	 SCS Same-Spin Scale       =       0.3333333333333333 [-]
	 SCS Opposite-Spin Scale   =       1.2000000000000000 [-]
	 SCS Same-Spin Energy      =      -0.0434059776885917 [Eh]
	 SCS Opposite-Spin Energy  =      -0.4336085516377401 [Eh]
	 SCS Correlation Energy    =      -0.4770145293263318 [Eh]
	 SCS Total Energy          =    -238.3754278056954092 [Eh]
	-----------------------------------------------------------

  -Total Gradient:
     Atom            X                  Y                   Z
    ------   -----------------  -----------------  -----------------
       1       -0.000307955794     0.000036153373    -0.000158694070
       2        0.000040678483    -0.000132226046     0.000109934826
       3        0.000051890084     0.000108334401     0.000181951496
       4        0.000036168661    -0.000027265749     0.000123649865
       5        0.000179218565     0.000015004020    -0.000256842118

  Vibration                       7                   8                   9
  Freq [cm^-1]                 524.9309           1151.1418           1165.4709
  Irrep                           A                   A                   A
  Reduced mass [u]             12.3612              7.1188              6.3261
  Force const [mDyne/A]         2.0068              5.5579              5.0628

  IR activ [km/mol]             7.2441             132.8593            246.7999

  Vibration                       10                  11                  12
  Freq [cm^-1]                1219.9887           1310.7801           1530.5208
  Irrep                           A                   A                   A
  Reduced mass [u]              1.5023              1.0414              1.2106
  Force const [mDyne/A]         1.3174              1.0542              1.6709

  IR activ [km/mol]            29.3580              0.0000             49.1642

  Vibration                       13                  14                  15
  Freq [cm^-1]                1614.9135           3164.7468           3250.5356
  Irrep                           A                   A                   A
  Reduced mass [u]              1.1051              1.0519              1.1194
  Force const [mDyne/A]         1.6980              6.2073              6.9683

  IR activ [km/mol]             6.1010             45.3356             61.7069

  Vibration                       7                   8                   9
  Freq [cm^-1]                 524.9309           1151.1418           1165.4709
  Irrep                           A                   A                   A
  Reduced mass [u]             12.3612              7.1188              6.3261
  Force const [mDyne/A]         2.0068              5.5579              5.0628

  IR activ [km/mol]             7.2441             132.8593            246.7999

  Vibration                       10                  11                  12
  Freq [cm^-1]                1219.9887           1310.7801           1530.5208
  Irrep                           A                   A                   A
  Reduced mass [u]              1.5023              1.0414              1.2106
  Force const [mDyne/A]         1.3174              1.0542              1.6709

  IR activ [km/mol]            29.3580              0.0000             49.1642

  Vibration                       13                  14                  15
  Freq [cm^-1]                1614.9135           3164.7468           3250.5356
  Irrep                           A                   A                   A
  Reduced mass [u]              1.1051              1.0519              1.1194
  Force const [mDyne/A]         1.6980              6.2073              6.9683

  IR activ [km/mol]             6.1010             45.3356             61.7069

  ==> Thermochemistry Components <==

  Entropy, S
    Electronic S            0.000 [cal/(mol K)]        0.000 [J/(mol K)]       0.00000000 [mEh/K] (multiplicity = 1)
    Translational S        37.334 [cal/(mol K)]      156.207 [J/(mol K)]       0.05949616 [mEh/K] (mol. weight = 52.0125 [u], P = 101325.00 [Pa])
    Rotational S           21.484 [cal/(mol K)]       89.890 [J/(mol K)]       0.03423716 [mEh/K] (symmetry no. = 1)
    Vibrational S           0.611 [cal/(mol K)]        2.557 [J/(mol K)]       0.00097392 [mEh/K]
  Total S                  59.430 [cal/(mol K)]      248.654 [J/(mol K)]       0.09470723 [mEh/K]
  Correction S              0.000 [cal/(mol K)]        0.000 [J/(mol K)]       0.00000000 [mEh/K]

  Constant volume heat capacity, Cv
    Electronic Cv           0.000 [cal/(mol K)]        0.000 [J/(mol K)]       0.00000000 [mEh/K]
    Translational Cv        2.981 [cal/(mol K)]       12.472 [J/(mol K)]       0.00475022 [mEh/K]
    Rotational Cv           2.981 [cal/(mol K)]       12.472 [J/(mol K)]       0.00475022 [mEh/K]
    Vibrational Cv          1.721 [cal/(mol K)]        7.201 [J/(mol K)]       0.00274277 [mEh/K]
  Total Cv                  7.683 [cal/(mol K)]       32.145 [J/(mol K)]       0.01224321 [mEh/K]
  Correction Cv             0.000 [cal/(mol K)]        0.000 [J/(mol K)]       0.00000000 [mEh/K]

  Constant pressure heat capacity, Cp
    Electronic Cp           0.000 [cal/(mol K)]        0.000 [J/(mol K)]       0.00000000 [mEh/K]
    Translational Cp        4.968 [cal/(mol K)]       20.786 [J/(mol K)]       0.00791703 [mEh/K]
    Rotational Cp           2.981 [cal/(mol K)]       12.472 [J/(mol K)]       0.00475022 [mEh/K]
    Vibrational Cp          1.721 [cal/(mol K)]        7.201 [J/(mol K)]       0.00274277 [mEh/K]
  Total Cp                  9.670 [cal/(mol K)]       40.459 [J/(mol K)]       0.01541002 [mEh/K]
  Correction Cp             0.000 [cal/(mol K)]        0.000 [J/(mol K)]       0.00000000 [mEh/K]

  ==> Thermochemistry Energy Analysis <==

  Raw electronic energy, E0
  Total E0, Electronic energy at well bottom at 0 [K]                 -238.38997183 [Eh]

  Zero-point energy, ZPE_vib = Sum_i nu_i / 2
    Electronic ZPE          0.000 [kcal/mol]        0.000 [kJ/mol]       0.00000000 [Eh]
    Translational ZPE       0.000 [kcal/mol]        0.000 [kJ/mol]       0.00000000 [Eh]
    Rotational ZPE          0.000 [kcal/mol]        0.000 [kJ/mol]       0.00000000 [Eh]
    Vibrational ZPE        21.348 [kcal/mol]       89.319 [kJ/mol]       0.03401994 [Eh]        7466.514 [cm^-1]
  Correction ZPE           21.348 [kcal/mol]       89.319 [kJ/mol]       0.03401994 [Eh]        7466.514 [cm^-1]
  Total ZPE, Electronic energy at 0 [K]                               -238.35595189 [Eh]

  Thermal Energy, E (includes ZPE)
    Electronic E            0.000 [kcal/mol]        0.000 [kJ/mol]       0.00000000 [Eh]
    Translational E         0.814 [kcal/mol]        3.407 [kJ/mol]       0.00129752 [Eh]
    Rotational E            0.814 [kcal/mol]        3.407 [kJ/mol]       0.00129752 [Eh]
    Vibrational E          21.475 [kcal/mol]       89.853 [kJ/mol]       0.03422310 [Eh]
  Correction E             23.104 [kcal/mol]       96.666 [kJ/mol]       0.03681814 [Eh]
  Total E, Electronic energy at  273.15 [K]                           -238.35315369 [Eh]

  Enthalpy, H_trans = E_trans + k_B * T
    Electronic H            0.000 [kcal/mol]        0.000 [kJ/mol]       0.00000000 [Eh]
    Translational H         1.357 [kcal/mol]        5.678 [kJ/mol]       0.00216254 [Eh]
    Rotational H            0.814 [kcal/mol]        3.407 [kJ/mol]       0.00129752 [Eh]
    Vibrational H          21.475 [kcal/mol]       89.853 [kJ/mol]       0.03422310 [Eh]
  Correction H             23.647 [kcal/mol]       98.937 [kJ/mol]       0.03768316 [Eh]
  Total H, Enthalpy at  273.15 [K]                                    -238.35228867 [Eh]

  Gibbs free energy, G = H - T * S
    Electronic G            0.000 [kcal/mol]        0.000 [kJ/mol]       0.00000000 [Eh]
    Translational G        -8.841 [kcal/mol]      -36.990 [kJ/mol]      -0.01408884 [Eh]
    Rotational G           -5.054 [kcal/mol]      -21.147 [kJ/mol]      -0.00805436 [Eh]
    Vibrational G          21.308 [kcal/mol]       89.154 [kJ/mol]       0.03395708 [Eh]
  Correction G              7.413 [kcal/mol]       31.017 [kJ/mol]       0.01181388 [Eh]
  Total G, Free enthalpy at  273.15 [K]                               -238.37815795 [Eh]

*** Psi4 exiting successfully. Buy a developer a beer!
