                               Psi4 1.6.1 release

  ==> Input File <==

--------------------------------------------------------------------------
#! Vibrational and thermo analysis of r125.
memory 2000 mb

molecule c2hf5 {

  C     3.68000   -1.66200   -0.05900
  C     2.14400   -1.54100   -0.00000
  H     4.03100   -1.65100   -1.09300
  F     4.23200   -0.62700    0.61800
  F     4.05500   -2.82100    0.53500
  F     1.76000   -0.39400   -0.58700
  F     1.69100   -1.55200    1.25600
  F     1.58600   -2.56300   -0.67000

}

set basis 6-31G**

energy('mp2')

optimize('mp2', molecule=c2hf5)

set t 273.15

e, wfn = freq('mp2', molecule=c2hf5, return_wfn=True)
entropy = 1000 * psi_hartree2kcalmol * (variable('enthalpy correction') - variable('gibbs free energy correction')) / get_global_option('t')

set hessian_write on
vibanal_wfn(wfn)
entropy = 1000 * psi_hartree2kcalmol * (variable('enthalpy correction') - variable('gibbs free energy correction')) / get_global_option('t')
--------------------------------------------------------------------------

    Molecular point group: c1
  Charge       = 0
  Multiplicity = 1
  Basis Set: 6-31G**
    Blend: 6-31G**
  Basis Set: (6-31G** AUX)
    Blend: CC-PVDZ-JKFIT
  @DF-RHF Final Energy:  -573.51316889139093
    Total Energy =                       -573.5131688913909329
 Dipole X            :         -1.2431494            1.5109838            0.2678345
 Dipole Y            :          0.0667583           -0.0653991            0.0013591
 Dipole Z            :          0.8613197           -1.4791011           -0.6177814
 Magnitude           :                                                    0.6733432
  Basis Set: (6-31G** AUX)
    Blend: CC-PVDZ-RI
	 Reference Energy          =    -573.5131688913909329 [Eh]
	 Singles Energy            =      -0.0000000000000000 [Eh]
	 Same-Spin Energy          =      -0.3171551245200877 [Eh]
	 Opposite-Spin Energy      =      -0.8152354200425478 [Eh]
	 Correlation Energy        =      -1.1323905445626354 [Eh]
	 Total Energy              =    -574.6455594359536008 [Eh]
	 SCS Total Energy          =    -574.5971697702819938 [Eh]
    Molecular point group: c1
  Basis Set: 6-31G**
    Blend: 6-31G**
  Basis Set: (6-31G** AUX)
    Blend: CC-PVDZ-JKFIT
  @DF-RHF Final Energy:  -573.51316889123063
    Total Energy =                       -573.5131688912306345
  Basis Set: (6-31G** AUX)
  @DF-RHF Final Energy:  -573.51333485795055
    Total Energy =                       -573.5133348579505537
  @DF-RHF Final Energy:  -573.51343701232713
    Total Energy =                       -573.5134370123271310
  @DF-RHF Final Energy:  -573.51335936783460
    Total Energy =                       -573.5133593678345960
  **** Optimization is complete! (in 4 steps) ****
    Final optimized geometry and variables:
                               Psi4 1.6.1 release
  @DF-RHF Final Energy:  -573.51335936811699
    Total Energy =                       -573.5133593681169941
                               Psi4 1.6.1 release
  @DF-RHF Final Energy:  -573.51333937618290
    Total Energy =                       -573.5133393761828984
                               Psi4 1.6.1 release
  @DF-RHF Final Energy:  -573.51337778840946
    Total Energy =                       -573.5133777884094570
                               Psi4 1.6.1 release
  @DF-RHF Final Energy:  -573.51336119312066
    Total Energy =                       -573.5133611931206588
                               Psi4 1.6.1 release
  @DF-RHF Final Energy:  -573.51335623501188
    Total Energy =                       -573.5133562350118837
                               Psi4 1.6.1 release
  @DF-RHF Final Energy:  -573.51333727805149
    Total Energy =                       -573.5133372780514946
                               Psi4 1.6.1 release
  @DF-RHF Final Energy:  -573.51337970098348
    Total Energy =                       -573.5133797009834780
                               Psi4 1.6.1 release
  @DF-RHF Final Energy:  -573.51338878822492
    Total Energy =                       -573.5133887882249155
                               Psi4 1.6.1 release
  @DF-RHF Final Energy:  -573.51332826605562
    Total Energy =                       -573.5133282660556233
                               Psi4 1.6.1 release
  @DF-RHF Final Energy:  -573.51335635169460
    Total Energy =                       -573.5133563516945969
                               Psi4 1.6.1 release
  @DF-RHF Final Energy:  -573.51336093345355
    Total Energy =                       -573.5133609334535549
                               Psi4 1.6.1 release
  @DF-RHF Final Energy:  -573.51335271983112
    Total Energy =                       -573.5133527198311185
                               Psi4 1.6.1 release
  @DF-RHF Final Energy:  -573.51336454643149
    Total Energy =                       -573.5133645464314895
                               Psi4 1.6.1 release
  @DF-RHF Final Energy:  -573.51336577925099
    Total Energy =                       -573.5133657792509894
                               Psi4 1.6.1 release
  @DF-RHF Final Energy:  -573.51335031592021
    Total Energy =                       -573.5133503159202064
                               Psi4 1.6.1 release
                               Psi4 1.6.1 release
                               Psi4 1.6.1 release
                               Psi4 1.6.1 release
                               Psi4 1.6.1 release
                               Psi4 1.6.1 release
                               Psi4 1.6.1 release
                               Psi4 1.6.1 release
                               Psi4 1.6.1 release
  @DF-RHF Final Energy:  -573.51336906364998
    Total Energy =                       -573.5133690636499750
                               Psi4 1.6.1 release
  @DF-RHF Final Energy:  -573.51334946556665
    Total Energy =                       -573.5133494655666482
                               Psi4 1.6.1 release
  @DF-RHF Final Energy:  -573.51337377874302
    Total Energy =                       -573.5133737787430164
                               Psi4 1.6.1 release
  @DF-RHF Final Energy:  -573.51334478981687
    Total Energy =                       -573.5133447898168697
                               Psi4 1.6.1 release
  @DF-RHF Final Energy:  -573.51333476189052
    Total Energy =                       -573.5133347618905191
                               Psi4 1.6.1 release
  @DF-RHF Final Energy:  -573.51338359620433
    Total Energy =                       -573.5133835962043349
                               Psi4 1.6.1 release
  @DF-RHF Final Energy:  -573.51336956688579
    Total Energy =                       -573.5133695668857854
                               Psi4 1.6.1 release
  @DF-RHF Final Energy:  -573.51334896954222
    Total Energy =                       -573.5133489695422213
                               Psi4 1.6.1 release
  @DF-RHF Final Energy:  -573.51336135112717
    Total Energy =                       -573.5133613511271733
                               Psi4 1.6.1 release
  @DF-RHF Final Energy:  -573.51335724608305
    Total Energy =                       -573.5133572460830464
                               Psi4 1.6.1 release
  @DF-RHF Final Energy:  -573.51339632360725
    Total Energy =                       -573.5133963236072532
                               Psi4 1.6.1 release
  @DF-RHF Final Energy:  -573.51332195899772
    Total Energy =                       -573.5133219589977216
                               Psi4 1.6.1 release
  @DF-RHF Final Energy:  -573.51334000526833
    Total Energy =                       -573.5133400052683328
                               Psi4 1.6.1 release
  @DF-RHF Final Energy:  -573.51337846547676
    Total Energy =                       -573.5133784654767624
                               Psi4 1.6.1 release
  @DF-RHF Final Energy:  -573.51336246324615
    Total Energy =                       -573.5133624632461533
                               Psi4 1.6.1 release
  @DF-RHF Final Energy:  -573.51335611708555
    Total Energy =                       -573.5133561170855501
                               Psi4 1.6.1 release
  @DF-RHF Final Energy:  -573.51337863957792
    Total Energy =                       -573.5133786395779225
                               Psi4 1.6.1 release
  @DF-RHF Final Energy:  -573.51333984268786
    Total Energy =                       -573.5133398426878557
                               Psi4 1.6.1 release
  @DF-RHF Final Energy:  -573.51339572450513
    Total Energy =                       -573.5133957245051306
                               Psi4 1.6.1 release
    Molecular point group: c1
  Charge       = 0
  Multiplicity = 1
  Basis Set: 6-31G**
    Blend: 6-31G**
  Basis Set: (6-31G** AUX)
    Blend: CC-PVDZ-JKFIT

    Orbital Energies [Eh]
    ---------------------

    Doubly Occupied:

       1A    -26.366133     2A    -26.366115     3A    -26.363529
       4A    -26.347379     5A    -26.347341     6A    -11.536385
       7A    -11.453154     8A     -1.748258     9A     -1.688390
      10A     -1.654343    11A     -1.652353    12A     -1.628666
      13A     -1.080297    14A     -0.944381    15A     -0.856797
      16A     -0.845106    17A     -0.844306    18A     -0.797812
      19A     -0.780019    20A     -0.721325    21A     -0.720614
      22A     -0.718772    23A     -0.694547    24A     -0.677767
      25A     -0.676552    26A     -0.664174    27A     -0.653790
      28A     -0.634673    29A     -0.557668

  @DF-RHF Final Energy:  -573.51332255758427

   => Energetics <=

    Nuclear Repulsion Energy =            359.3379808316392996
    One-Electron Energy =               -1513.6613148655737859
    Two-Electron Energy =                 580.8100114763502688
    Total Energy =                       -573.5133225575842744
 Dipole X            :         -1.2316294            1.5066081            0.2749787
 Dipole Y            :          0.0659331           -0.0626003            0.0033328
 Dipole Z            :          0.8453620           -1.4851188           -0.6397568
 Magnitude           :                                                    0.6963570
  Basis Set: (6-31G** AUX)
    Blend: CC-PVDZ-RI
    Molecular point group: c1

    Geometry (in Bohr), charge = 0, multiplicity = 1:

       Center              X                  Y                   Z               Mass
    ------------   -----------------  -----------------  -----------------  -----------------
         C            1.782783700752    -0.126195371376    -0.438943695828    12.000000000000
         C           -1.075837038430     0.099491371022    -0.325713941920    12.000000000000
         H            2.456516484292    -0.103680514572    -2.380572003898     1.007825032230
         F            2.795302941422     1.840456677251     0.857999433832    18.998403162730
         F            2.459741034485    -2.325308984115     0.693142764943    18.998403162730
         F           -1.802536082910     2.273369022636    -1.422530793848    18.998403162730
         F           -1.895598662704     0.071035168301     2.066525312215    18.998403162730
         F           -2.133752381739    -1.837184750449    -1.585870158769    18.998403162730

  Basis Set: 6-31G**
    Blend: 6-31G**
  Basis Set: (6-31G** AUX)
    Blend: CC-PVDZ-JKFIT
  Basis Set: (6-31G** AUX)
    Blend: CC-PVDZ-JKFIT
	 Reference Energy          =    -573.5133225575842744 [Eh]
	 Singles Energy            =      -0.0000000000000000 [Eh]
	 Same-Spin Energy          =      -0.3173322754752215 [Eh]
	 Opposite-Spin Energy      =      -0.8153843980782269 [Eh]
	 Correlation Energy        =      -1.1327166735534484 [Eh]
	 Total Energy              =    -574.6460392311377063 [Eh]

	 ================> DF-SCS-MP2 Energies <==================
	-----------------------------------------------------------
	 SCS Same-Spin Scale       =       0.3333333333333333 [-]
	 SCS Opposite-Spin Scale   =       1.2000000000000000 [-]
	 SCS Same-Spin Energy      =      -0.1057774251584072 [Eh]
	 SCS Opposite-Spin Energy  =      -0.9784612776938723 [Eh]
	 SCS Correlation Energy    =      -1.0842387028522795 [Eh]
	 SCS Total Energy          =    -574.5975612604365779 [Eh]
	-----------------------------------------------------------

  -Total Gradient:
     Atom            X                  Y                   Z
    ------   -----------------  -----------------  -----------------
       1       -0.000061129989     0.000076535422    -0.000033461262
       2        0.000140053419    -0.000011538857     0.000159094409
       3        0.000013302920    -0.000002218411    -0.000019050329
       4       -0.000017353622    -0.000119848915    -0.000030202328
       5        0.000011879470     0.000071589811     0.000005557175
       6        0.000019396249     0.000169612300    -0.000155314950
       7       -0.000062614481     0.000036463364     0.000335662722
       8       -0.000043533969    -0.000220594716    -0.000262285436

  Vibration                       7                   8                   9
  Freq [cm^-1]                 78.0524             210.1639            245.7010
  Irrep                           A                   A                   A
  Reduced mass [u]             13.5791             18.6494             14.1721
  Force const [mDyne/A]         0.0487              0.4853              0.5041

  IR activ [km/mol]             1.1704              3.5018              5.5579

  Vibration                       10                  11                  12
  Freq [cm^-1]                 365.8152            418.0919            518.5687
  Irrep                           A                   A                   A
  Reduced mass [u]             18.1259             15.5168             15.5182
  Force const [mDyne/A]         1.4291              1.5981              2.4587

  IR activ [km/mol]             0.0821              1.8338             12.0674

  Vibration                       13                  14                  15
  Freq [cm^-1]                 575.9855            588.8084            728.1553
  Irrep                           A                   A                   A
  Reduced mass [u]              9.7592             16.1161             13.2377
  Force const [mDyne/A]         1.9076              3.2920              4.1353

  IR activ [km/mol]            19.9043              1.4442             39.5326

  Vibration                       16                  17                  18
  Freq [cm^-1]                 897.7389           1173.0779           1201.7157
  Irrep                           A                   A                   A
  Reduced mass [u]              5.8489              6.3573              4.8912
  Force const [mDyne/A]         2.7773              5.1544              4.1616

  IR activ [km/mol]            70.1420             142.4567            115.5633

  Vibration                       19                  20                  21
  Freq [cm^-1]                1252.7106           1282.8229           1373.3875
  Irrep                           A                   A                   A
  Reduced mass [u]              4.3007             13.1674              3.0776
  Force const [mDyne/A]         3.9764             12.7668              3.4201

  IR activ [km/mol]            242.6711            407.6611            182.4563

  Vibration                       22                  23                  24
  Freq [cm^-1]                1442.2872           1518.6280           3211.2510
  Irrep                           A                   A                   A
  Reduced mass [u]              1.2512              2.7505              1.0892
  Force const [mDyne/A]         1.5334              3.7374              6.6175

  IR activ [km/mol]            20.4262              2.9412             20.2244

  Vibration                       7                   8                   9
  Freq [cm^-1]                 78.0524             210.1639            245.7010
  Irrep                           A                   A                   A
  Reduced mass [u]             13.5791             18.6494             14.1721
  Force const [mDyne/A]         0.0487              0.4853              0.5041

  IR activ [km/mol]             1.1704              3.5018              5.5579

  Vibration                       10                  11                  12
  Freq [cm^-1]                 365.8152            418.0919            518.5687
  Irrep                           A                   A                   A
  Reduced mass [u]             18.1259             15.5168             15.5182
  Force const [mDyne/A]         1.4291              1.5981              2.4587

  IR activ [km/mol]             0.0821              1.8338             12.0674

  Vibration                       13                  14                  15
  Freq [cm^-1]                 575.9855            588.8084            728.1553
  Irrep                           A                   A                   A
  Reduced mass [u]              9.7592             16.1161             13.2377
  Force const [mDyne/A]         1.9076              3.2920              4.1353

  IR activ [km/mol]            19.9043              1.4442             39.5326

  Vibration                       16                  17                  18
  Freq [cm^-1]                 897.7389           1173.0779           1201.7157
  Irrep                           A                   A                   A
  Reduced mass [u]              5.8489              6.3573              4.8912
  Force const [mDyne/A]         2.7773              5.1544              4.1616

  IR activ [km/mol]            70.1420             142.4567            115.5633

  Vibration                       19                  20                  21
  Freq [cm^-1]                1252.7106           1282.8229           1373.3875
  Irrep                           A                   A                   A
  Reduced mass [u]              4.3007             13.1674              3.0776
  Force const [mDyne/A]         3.9764             12.7668              3.4201

  IR activ [km/mol]            242.6711            407.6611            182.4563

  Vibration                       22                  23                  24
  Freq [cm^-1]                1442.2872           1518.6280           3211.2510
  Irrep                           A                   A                   A
  Reduced mass [u]              1.2512              2.7505              1.0892
  Force const [mDyne/A]         1.5334              3.7374              6.6175

  IR activ [km/mol]            20.4262              2.9412             20.2244

  ==> Thermochemistry Components <==

  Entropy, S
    Electronic S            0.000 [cal/(mol K)]        0.000 [J/(mol K)]       0.00000000 [mEh/K] (multiplicity = 1)
    Translational S        39.826 [cal/(mol K)]      166.634 [J/(mol K)]       0.06346737 [mEh/K] (mol. weight = 119.9998 [u], P = 101325.00 [Pa])
    Rotational S           27.032 [cal/(mol K)]      113.102 [J/(mol K)]       0.04307810 [mEh/K] (symmetry no. = 1)
    Vibrational S          10.731 [cal/(mol K)]       44.899 [J/(mol K)]       0.01710107 [mEh/K]
  Total S                  77.589 [cal/(mol K)]      324.634 [J/(mol K)]       0.12364654 [mEh/K]
  Correction S              0.000 [cal/(mol K)]        0.000 [J/(mol K)]       0.00000000 [mEh/K]

  Constant volume heat capacity, Cv
    Electronic Cv           0.000 [cal/(mol K)]        0.000 [J/(mol K)]       0.00000000 [mEh/K]
    Translational Cv        2.981 [cal/(mol K)]       12.472 [J/(mol K)]       0.00475022 [mEh/K]
    Rotational Cv           2.981 [cal/(mol K)]       12.472 [J/(mol K)]       0.00475022 [mEh/K]
    Vibrational Cv         13.084 [cal/(mol K)]       54.742 [J/(mol K)]       0.02085004 [mEh/K]
  Total Cv                 19.045 [cal/(mol K)]       79.685 [J/(mol K)]       0.03035047 [mEh/K]
  Correction Cv             0.000 [cal/(mol K)]        0.000 [J/(mol K)]       0.00000000 [mEh/K]

  Constant pressure heat capacity, Cp
    Electronic Cp           0.000 [cal/(mol K)]        0.000 [J/(mol K)]       0.00000000 [mEh/K]
    Translational Cp        4.968 [cal/(mol K)]       20.786 [J/(mol K)]       0.00791703 [mEh/K]
    Rotational Cp           2.981 [cal/(mol K)]       12.472 [J/(mol K)]       0.00475022 [mEh/K]
    Vibrational Cp         13.084 [cal/(mol K)]       54.742 [J/(mol K)]       0.02085004 [mEh/K]
  Total Cp                 21.032 [cal/(mol K)]       88.000 [J/(mol K)]       0.03351728 [mEh/K]
  Correction Cp             0.000 [cal/(mol K)]        0.000 [J/(mol K)]       0.00000000 [mEh/K]

  ==> Thermochemistry Energy Analysis <==

  Raw electronic energy, E0
  Total E0, Electronic energy at well bottom at 0 [K]                 -574.64603949 [Eh]

  Zero-point energy, ZPE_vib = Sum_i nu_i / 2
    Electronic ZPE          0.000 [kcal/mol]        0.000 [kJ/mol]       0.00000000 [Eh]
    Translational ZPE       0.000 [kcal/mol]        0.000 [kJ/mol]       0.00000000 [Eh]
    Rotational ZPE          0.000 [kcal/mol]        0.000 [kJ/mol]       0.00000000 [Eh]
    Vibrational ZPE        24.421 [kcal/mol]      102.179 [kJ/mol]       0.03891785 [Eh]        8541.481 [cm^-1]
  Correction ZPE           24.421 [kcal/mol]      102.179 [kJ/mol]       0.03891785 [Eh]        8541.481 [cm^-1]
  Total ZPE, Electronic energy at 0 [K]                               -574.60712164 [Eh]

  Thermal Energy, E (includes ZPE)
    Electronic E            0.000 [kcal/mol]        0.000 [kJ/mol]       0.00000000 [Eh]
    Translational E         0.814 [kcal/mol]        3.407 [kJ/mol]       0.00129752 [Eh]
    Rotational E            0.814 [kcal/mol]        3.407 [kJ/mol]       0.00129752 [Eh]
    Vibrational E          26.112 [kcal/mol]      109.254 [kJ/mol]       0.04161254 [Eh]
  Correction E             27.741 [kcal/mol]      116.067 [kJ/mol]       0.04420758 [Eh]
  Total E, Electronic energy at  273.15 [K]                           -574.60183191 [Eh]

  Enthalpy, H_trans = E_trans + k_B * T
    Electronic H            0.000 [kcal/mol]        0.000 [kJ/mol]       0.00000000 [Eh]
    Translational H         1.357 [kcal/mol]        5.678 [kJ/mol]       0.00216254 [Eh]
    Rotational H            0.814 [kcal/mol]        3.407 [kJ/mol]       0.00129752 [Eh]
    Vibrational H          26.112 [kcal/mol]      109.254 [kJ/mol]       0.04161254 [Eh]
  Correction H             28.283 [kcal/mol]      118.338 [kJ/mol]       0.04507259 [Eh]
  Total H, Enthalpy at  273.15 [K]                                    -574.60096690 [Eh]

  Gibbs free energy, G = H - T * S
    Electronic G            0.000 [kcal/mol]        0.000 [kJ/mol]       0.00000000 [Eh]
    Translational G        -9.522 [kcal/mol]      -39.838 [kJ/mol]      -0.01517358 [Eh]
    Rotational G           -6.570 [kcal/mol]      -27.487 [kJ/mol]      -0.01046926 [Eh]
    Vibrational G          23.181 [kcal/mol]       96.990 [kJ/mol]       0.03694138 [Eh]
  Correction G              7.090 [kcal/mol]       29.664 [kJ/mol]       0.01129854 [Eh]
  Total G, Free enthalpy at  273.15 [K]                               -574.63474095 [Eh]

*** Psi4 exiting successfully. Buy a developer a beer!
